#     Step Nr.          Time[fs]        Kin.[a.u.]          Temp[K]            Pot.[a.u.]        Cons Qty[a.u.]        UsedTime[s]
         0            0.000000         0.011400535       800.000000000       -38.921214294       -38.909813758         0.000000000
         1            0.500000         0.010847357       761.182280940       -38.920930161       -38.910082804        11.923431823
         2            1.000000         0.011938961       837.782483925       -38.920609156       -38.908670195         5.283430548
