       5
 i =        0, time =        0.000, E =       -38.9212142937
  H         5.9232032292        5.9842392233        5.2706048685
  C         0.0274273069       -0.0594766627        1.1073748102
  O         0.0605781896       -0.0135448188        2.2784166399
  O        -0.0520121458        0.2472921180       -0.0073267680
  H         6.0495911033        5.8576608880        5.9705759739
       5
 i =        1, time =        0.500, E =       -38.9209301609
  H         5.9232032292        5.9842392233        5.2706048685
  C         0.0272251030       -0.0613401839        1.1046000409
  O         0.0600165206       -0.0141116893        2.2782147430
  O        -0.0508352602        0.2481391114       -0.0068735995
  H         6.0492830560        5.8592905441        5.9730732955
       5
 i =        2, time =        1.000, E =       -38.9206091564
  H         5.9232032292        5.9842392233        5.2706048685
  C         0.0271091233       -0.0631335420        1.1017221903
  O         0.0594103283       -0.0148583595        2.2780724027
  O        -0.0496820065        0.2488662465       -0.0064838060
  H         6.0490627134        5.8608201518        5.9756849226
